# vtk DataFile Version 3.0
Modu Geometry
ASCII
DATASET UNSTRUCTURED_GRID
POINTS 25 double
0 0 0
1 0 0
1 1 0
0 1 0
0 0 1
1 0 1
1 1 1
0 1 1
0.301205 -0.402327 -1.05733
1.32158 -0.213263 -0.438205
1.35197 1.20936 -0.464149
0.382407 1.50717 -1.14799
0.783575 -1.36411 -1.46399
2.25896 -0.87927 -0.318819
-1.21795 -2.3713 0.116905
1.23422 -2.75122 1.16457
0.756472 -0.855672 2.44087
-1.04043 -0.843686 1.89913
0.550494 0.923401 2.67291
-1.29125 0.873122 2.02809
-2.63023 -0.0522335 0.023717
-0.869537 0.908636 -1.15004
2.36993 1.75404 -0.282699
1.28272 2.57279 -1.48515
0.897316 -0.451342 1.03761
CELLS 10 90
8 0 1 2 3 4 5 6 7 
8 0 3 2 1 8 11 10 9 
8 1 0 8 9 5 4 12 13 
8 12 13 5 4 14 15 16 17 
8 4 17 16 5 7 19 18 6 
8 4 17 19 7 12 14 20 21 
8 2 1 9 10 6 5 13 22 
8 6 2 3 7 22 10 11 23 
8 13 9 10 22 12 8 11 23 
8 14 15 16 17 20 24 18 19 
CELL_TYPES 10
12
12
12
12
12
12
12
12
12
12
POINT_DATA 25
SCALARS fixed int
LOOKUP_TABLE default
1
1
1
1
1
1
1
1
0
0
0
0
0
0
0
0
0
0
0
0
0
0
0
0
0
