# vtk DataFile Version 3.0
Mesquite Mesh
ASCII
DATASET UNSTRUCTURED_GRID
POINTS 12 double
0 0 0
1 0 0
1 1 0
0 1 0
0 0 1
1 0 1
1 1 1
0 1 1
0 0 -1
1 0 -1
1 1 -1
0 1 -1
CELLS 2 18
8 0 1 2 3 4 5 6 7
8 0 3 2 1 8 11 10 9
CELL_TYPES 2
12
12
POINT_DATA 12
SCALARS fixed int
LOOKUP_TABLE default
1
1
1
1
1
1
1
1
0
0
0
0
