# vtk DataFile Version 3.0
Mesquite Mesh
ASCII
DATASET UNSTRUCTURED_GRID
POINTS 14 double
0 0 0
1 0 0
1 1 0
0 1 0
0 0 1
1 0 1
1 1 1
0 1 1
-0.05497921973 -0.6724323751 -0.6724218087
1.055003639 -0.6724208868 -0.6724015192
1.090359788 0.5213858637 -1.181151053
-0.0903270102 0.5213872987 -1.181164339
-0.0903255908 -1.181161699 0.5214004568
1.0903535 -1.181153082 0.5214097576
CELLS 3 27
8 0 1 2 3 4 5 6 7
8 0 3 2 1 8 11 10 9
8 1 0 8 9 5 4 12 13
CELL_TYPES 3
12
12
12
POINT_DATA 14
SCALARS fixed int
LOOKUP_TABLE default
1
1
1
1
1
1
1
1
0
0
0
0
0
0
