# vtk DataFile Version 3.0
Modu Geometry
ASCII
DATASET UNSTRUCTURED_GRID
POINTS 18 double
0 0 0
1 0 0
1 1 0
0 1 0
0 0 1
1 0 1
1 1 1
0 1 1
-0.0549792 -0.672432 -0.672422
1.055 -0.672421 -0.672402
1.09036 0.521386 -1.18115
-0.090327 0.521387 -1.18116
-0.0903256 -1.18116 0.5214
1.09035 -1.18115 0.52141
-0.0903302 -1.5567 1.44821
1.09035 -1.55669 1.44822
1 -0.375533 1.92681
0 -0.375537 1.92681
CELLS 4 36
8 0 1 2 3 4 5 6 7 
8 0 3 2 1 8 11 10 9 
8 1 0 8 9 5 4 12 13 
8 12 13 5 4 14 15 16 17 
CELL_TYPES 4
12
12
12
12
POINT_DATA 18
SCALARS fixed int
LOOKUP_TABLE default
1
1
1
1
1
1
1
1
0
0
0
0
0
0
0
0
0
0
