# vtk DataFile Version 3.0
Mesquite Mesh
ASCII
DATASET UNSTRUCTURED_GRID
POINTS 18 double
0 0 0
1 0 0
1 1 0
0 1 0
0 0 1
1 0 1
1 1 1
0 1 1
-0.05001498486 -0.6658463062 -0.6557452108
1.050014981 -0.6658463073 -0.6557452125
1.087201545 0.5145414992 -1.172310968
-0.08720154895 0.5145414998 -1.172310967
-0.07242669278 -1.115407706 0.5548098578
1.072426689 -1.115407705 0.5548098566
-0.07073887303 -1.50773432 1.638067405
1.070738875 -1.507734325 1.638067405
1.055164067 -0.4293493966 2.042971339
-0.0551640644 -0.4293493949 2.042971344
CELLS 4 36
8 0 1 2 3 4 5 6 7
8 0 3 2 1 8 11 10 9
8 1 0 8 9 5 4 12 13
8 12 13 5 4 14 15 16 17
CELL_TYPES 4
12
12
12
12
POINT_DATA 18
SCALARS fixed int
LOOKUP_TABLE default
1
1
1
1
1
1
1
1
0
0
0
0
0
0
0
0
0
0
