# vtk DataFile Version 3.0
Mesquite Mesh
ASCII
DATASET UNSTRUCTURED_GRID
POINTS 20 double
0 0 0
1 0 0
1 1 0
0 1 0
0 0 1
1 0 1
1 1 1
0 1 1
-0.05893386404 -0.681590271 -0.6487054964
1.058933864 -0.681590271 -0.6487054962
1.092078895 0.50740956 -1.178678155
-0.0920788954 0.5074095599 -1.178678155
-0.0767103606 -1.114172998 0.6527495342
1.076710361 -1.114172999 0.6527495337
-0.07431075419 -1.311016089 1.817409671
1.074310754 -1.311016088 1.817409671
1.036239786 -0.1581004371 2.029133679
-0.0362397852 -0.158100436 2.029133678
1.033187333 0.9358287241 2.082439879
-0.03318733293 0.9358287241 2.08243988
CELLS 5 45
8 0 1 2 3 4 5 6 7
8 0 3 2 1 8 11 10 9
8 1 0 8 9 5 4 12 13
8 12 13 5 4 14 15 16 17
8 4 17 16 5 7 19 18 6
CELL_TYPES 5
12
12
12
12
12
POINT_DATA 20
SCALARS fixed int
LOOKUP_TABLE default
1
1
1
1
1
1
1
1
0
0
0
0
0
0
0
0
0
0
0
0
