# vtk DataFile Version 3.0
Modu Geometry
ASCII
DATASET UNSTRUCTURED_GRID
POINTS 20 double
0 0 0
1 0 0
1 1 0
0 1 0
0 0 1
1 0 1
1 1 1
0 1 1
-0.050015 -0.665846 -0.655745
1.05001 -0.665846 -0.655745
1.0872 0.514541 -1.17231
-0.0872015 0.514541 -1.17231
-0.0724267 -1.11541 0.55481
1.07243 -1.11541 0.55481
-0.0707389 -1.50773 1.63807
1.07074 -1.50773 1.63807
1.05516 -0.429349 2.04297
-0.0551641 -0.429349 2.04297
1.06555 0.67808 2.23932
-0.0655491 0.67808 2.23932
CELLS 5 45
8 0 1 2 3 4 5 6 7 
8 0 3 2 1 8 11 10 9 
8 1 0 8 9 5 4 12 13 
8 12 13 5 4 14 15 16 17 
8 4 17 16 5 7 19 18 6 
CELL_TYPES 5
12
12
12
12
12
POINT_DATA 20
SCALARS fixed int
LOOKUP_TABLE default
1
1
1
1
1
1
1
1
0
0
0
0
0
0
0
0
0
0
0
0
