# vtk DataFile Version 3.0
Mesquite Mesh
ASCII
DATASET UNSTRUCTURED_GRID
POINTS 22 double
0 0 0
1 0 0
1 1 0
0 1 0
0 0 1
1 0 1
1 1 1
0 1 1
-0.1878316153 -0.6233555093 -0.6516862862
0.953082824 -0.7613004418 -0.6582682447
1.065737398 0.4722940209 -1.20498545
-0.1291475694 0.550840041 -1.176549692
-0.5648485654 -0.8523689906 0.6859034504
0.7284268104 -1.253382156 0.702832635
-0.7752347615 -0.9151149928 1.902008279
0.5119552312 -1.447863451 1.974739289
0.9610397003 -0.2290332654 2.112975452
-0.07478844393 -0.08119954184 2.055515852
0.91240192 0.9822765029 2.208252591
-0.3358441448 0.9286775671 2.097197601
-1.493253071 0.2753562707 1.856528155
-1.222020512 0.4036527094 0.5901914208
CELLS 6 54
8 0 1 2 3 4 5 6 7
8 0 3 2 1 8 11 10 9
8 1 0 8 9 5 4 12 13
8 12 13 5 4 14 15 16 17
8 4 17 16 5 7 19 18 6
8 4 17 19 7 12 14 20 21
CELL_TYPES 6
12
12
12
12
12
12
POINT_DATA 22
SCALARS fixed int
LOOKUP_TABLE default
1
1
1
1
1
1
1
1
0
0
0
0
0
0
0
0
0
0
0
0
0
0
