# vtk DataFile Version 3.0
Modu Geometry
ASCII
DATASET UNSTRUCTURED_GRID
POINTS 22 double
0 0 0
1 0 0
1 1 0
0 1 0
0 0 1
1 0 1
1 1 1
0 1 1
-0.0589339 -0.68159 -0.648705
1.05893 -0.68159 -0.648705
1.09208 0.50741 -1.17868
-0.0920789 0.50741 -1.17868
-0.0767104 -1.11417 0.65275
1.07671 -1.11417 0.65275
-0.0743108 -1.31102 1.81741
1.07431 -1.31102 1.81741
1.03624 -0.1581 2.02913
-0.0362398 -0.1581 2.02913
1.03319 0.935829 2.08244
-0.0331873 0.935829 2.08244
-0.323113 -0.641321 0.731366
-0.290454 -0.432302 -0.31482
CELLS 6 54
8 0 1 2 3 4 5 6 7 
8 0 3 2 1 8 11 10 9 
8 1 0 8 9 5 4 12 13 
8 12 13 5 4 14 15 16 17 
8 4 17 16 5 7 19 18 6 
8 4 17 19 7 12 14 20 21 
CELL_TYPES 6
12
12
12
12
12
12
POINT_DATA 22
SCALARS fixed int
LOOKUP_TABLE default
1
1
1
1
1
1
1
1
0
0
0
0
0
0
0
0
0
0
0
0
0
0
