# vtk DataFile Version 3.0
Modu Geometry
ASCII
DATASET UNSTRUCTURED_GRID
POINTS 23 double
0 0 0
1 0 0
1 1 0
0 1 0
0 0 1
1 0 1
1 1 1
0 1 1
-0.187832 -0.623356 -0.651686
0.953083 -0.7613 -0.658268
1.06574 0.472294 -1.20499
-0.129148 0.55084 -1.17655
-0.564849 -0.852369 0.685903
0.728427 -1.25338 0.702833
-0.775235 -0.915115 1.90201
0.511955 -1.44786 1.97474
0.96104 -0.229033 2.11298
-0.0747884 -0.0811995 2.05552
0.912402 0.982277 2.20825
-0.335844 0.928678 2.0972
-1.49325 0.275356 1.85653
-1.22202 0.403653 0.590191
0.635606 0.484169 -0.01629
CELLS 7 63
8 0 1 2 3 4 5 6 7 
8 0 3 2 1 8 11 10 9 
8 1 0 8 9 5 4 12 13 
8 12 13 5 4 14 15 16 17 
8 4 17 16 5 7 19 18 6 
8 4 17 19 7 12 14 20 21 
8 2 1 9 10 6 5 13 22 
CELL_TYPES 7
12
12
12
12
12
12
12
POINT_DATA 23
SCALARS fixed int
LOOKUP_TABLE default
1
1
1
1
1
1
1
1
0
0
0
0
0
0
0
0
0
0
0
0
0
0
0
