# vtk DataFile Version 3.0
Mesquite Mesh
ASCII
DATASET UNSTRUCTURED_GRID
POINTS 23 double
0 0 0
1 0 0
1 1 0
0 1 0
0 0 1
1 0 1
1 1 1
0 1 1
0.152602774 -0.7315869163 -0.8197507692
1.50035838 -0.6050080566 -0.542749518
1.853387625 0.6562016579 -0.7807756646
0.3799097487 0.6608637403 -1.356514584
-0.456442117 -1.015755062 0.6375026487
1.577676902 -0.9876963093 0.7693878757
-0.7241895714 -1.092184732 1.977972609
0.9220497403 -1.427166279 2.187551515
1.019686839 -0.1184451582 2.192659265
-0.09623146285 -0.0893687133 2.122099075
0.8668988751 1.088660704 2.23175857
-0.4456498502 0.9391107077 2.124293764
-1.617209469 0.1367613246 1.838196488
-1.264675281 0.2946241766 0.4837093641
2.374857007 0.4607012153 0.7055602568
CELLS 7 63
8 0 1 2 3 4 5 6 7
8 0 3 2 1 8 11 10 9
8 1 0 8 9 5 4 12 13
8 12 13 5 4 14 15 16 17
8 4 17 16 5 7 19 18 6
8 4 17 19 7 12 14 20 21
8 2 1 9 10 6 5 13 22
CELL_TYPES 7
12
12
12
12
12
12
12
POINT_DATA 23
SCALARS fixed int
LOOKUP_TABLE default
1
1
1
1
1
1
1
1
0
0
0
0
0
0
0
0
0
0
0
0
0
0
0
