# vtk DataFile Version 3.0
Modu Geometry
ASCII
DATASET UNSTRUCTURED_GRID
POINTS 24 double
0 0 0
1 0 0
1 1 0
0 1 0
0 0 1
1 0 1
1 1 1
0 1 1
0.152603 -0.731587 -0.819751
1.50036 -0.605008 -0.54275
1.85339 0.656202 -0.780776
0.37991 0.660864 -1.35651
-0.456442 -1.01576 0.637503
1.57768 -0.987696 0.769388
-0.72419 -1.09218 1.97797
0.92205 -1.42717 2.18755
1.01969 -0.118445 2.19266
-0.0962315 -0.0893687 2.1221
0.866899 1.08866 2.23176
-0.44565 0.939111 2.12429
-1.61721 0.136761 1.8382
-1.26468 0.294624 0.483709
2.37486 0.460701 0.70556
0.758745 0.308688 0.611794
CELLS 8 72
8 0 1 2 3 4 5 6 7 
8 0 3 2 1 8 11 10 9 
8 1 0 8 9 5 4 12 13 
8 12 13 5 4 14 15 16 17 
8 4 17 16 5 7 19 18 6 
8 4 17 19 7 12 14 20 21 
8 2 1 9 10 6 5 13 22 
8 6 2 3 7 22 10 11 23 
CELL_TYPES 8
12
12
12
12
12
12
12
12
POINT_DATA 24
SCALARS fixed int
LOOKUP_TABLE default
1
1
1
1
1
1
1
1
0
0
0
0
0
0
0
0
0
0
0
0
0
0
0
0
