# vtk DataFile Version 3.0
Mesquite Mesh
ASCII
DATASET UNSTRUCTURED_GRID
POINTS 24 double
0 0 0
1 0 0
1 1 0
0 1 0
0 0 1
1 0 1
1 1 1
0 1 1
0.09514483918 -0.6601641343 -0.9755909717
1.629023814 -0.4968927534 -0.6737000485
1.695855529 1.442611921 -0.6573502178
0.2387361419 1.760099204 -0.9600274125
-0.4485914541 -1.071535371 0.5953969338
1.74107732 -0.9378793008 0.8142609145
-0.7526054487 -1.150458178 1.986823374
0.9791265632 -1.441475633 2.268670132
1.018642324 -0.09769701612 2.232940812
-0.1275092226 -0.09573238538 2.146242172
0.8458790007 1.118856186 2.248530423
-0.4913162481 0.9484798279 2.129915348
-1.68267752 0.112862075 1.811475651
-1.283362551 0.2818063633 0.4268353349
2.018789557 1.687870178 0.8147895447
0.4438244918 2.442346784 0.6236611894
CELLS 8 72
8 0 1 2 3 4 5 6 7
8 0 3 2 1 8 11 10 9
8 1 0 8 9 5 4 12 13
8 12 13 5 4 14 15 16 17
8 4 17 16 5 7 19 18 6
8 4 17 19 7 12 14 20 21
8 2 1 9 10 6 5 13 22
8 6 2 3 7 22 10 11 23
CELL_TYPES 8
12
12
12
12
12
12
12
12
POINT_DATA 24
SCALARS fixed int
LOOKUP_TABLE default
1
1
1
1
1
1
1
1
0
0
0
0
0
0
0
0
0
0
0
0
0
0
0
0
