# vtk DataFile Version 3.0
Mesquite Mesh
ASCII
DATASET UNSTRUCTURED_GRID
POINTS 24 double
0 0 0
1 0 0
1 1 0
0 1 0
0 0 1
1 0 1
1 1 1
0 1 1
0.3012045697 -0.4023265038 -1.057327869
1.321582202 -0.21326259 -0.438205301
1.351965407 1.209358842 -0.4641493137
0.382406779 1.507172468 -1.147993536
0.7835751716 -1.364109118 -1.463993249
2.258959869 -0.8792702755 -0.3188187767
-1.217953714 -2.371295157 0.1169050558
1.234224987 -2.751219977 1.164571309
0.7564717082 -0.8556717204 2.440867874
-1.040433513 -0.8436864048 1.899127242
0.5504941265 0.9234010523 2.672913759
-1.291251745 0.8731220411 2.028094876
-2.630225241 -0.05223354079 0.02371702254
-0.8695365839 0.9086358863 -1.150043677
2.369930358 1.754039889 -0.2826985284
1.28272136 2.572787 -1.485148671
CELLS 9 81
8 0 1 2 3 4 5 6 7
8 0 3 2 1 8 11 10 9
8 1 0 8 9 5 4 12 13
8 12 13 5 4 14 15 16 17
8 4 17 16 5 7 19 18 6
8 4 17 19 7 12 14 20 21
8 2 1 9 10 6 5 13 22
8 6 2 3 7 22 10 11 23
8 13 9 10 22 12 8 11 23
CELL_TYPES 9
12
12
12
12
12
12
12
12
12
POINT_DATA 24
SCALARS fixed int
LOOKUP_TABLE default
1
1
1
1
1
1
1
1
0
0
0
0
0
0
0
0
0
0
0
0
0
0
0
0
