# vtk DataFile Version 3.0
Modu Geometry
ASCII
DATASET UNSTRUCTURED_GRID
POINTS 24 double
0 0 0
1 0 0
1 1 0
0 1 0
0 0 1
1 0 1
1 1 1
0 1 1
0.0951448 -0.660164 -0.975591
1.62902 -0.496893 -0.6737
1.69586 1.44261 -0.65735
0.238736 1.7601 -0.960027
-0.448591 -1.07154 0.595397
1.74108 -0.937879 0.814261
-0.752605 -1.15046 1.98682
0.979127 -1.44148 2.26867
1.01864 -0.097697 2.23294
-0.127509 -0.0957324 2.14624
0.845879 1.11886 2.24853
-0.491316 0.94848 2.12992
-1.68268 0.112862 1.81148
-1.28336 0.281806 0.426835
2.01879 1.68787 0.81479
0.443824 2.44235 0.623661
CELLS 9 81
8 0 1 2 3 4 5 6 7 
8 0 3 2 1 8 11 10 9 
8 1 0 8 9 5 4 12 13 
8 12 13 5 4 14 15 16 17 
8 4 17 16 5 7 19 18 6 
8 4 17 19 7 12 14 20 21 
8 2 1 9 10 6 5 13 22 
8 6 2 3 7 22 10 11 23 
8 13 9 10 22 12 8 11 23 
CELL_TYPES 9
12
12
12
12
12
12
12
12
12
POINT_DATA 24
SCALARS fixed int
LOOKUP_TABLE default
1
1
1
1
1
1
1
1
0
0
0
0
0
0
0
0
0
0
0
0
0
0
0
0
