# vtk DataFile Version 3.0
Mesquite Mesh
ASCII
DATASET UNSTRUCTURED_GRID
POINTS 22 double
0 0 0
1 0 0
1 1 0
0 1 0
0 0 1
1 0 1
1 1 1
0 1 1
-0.2004246678 -0.8473696279 -0.5554462341
1.200424668 -0.8473696279 -0.5554462341
1.156548879 0.4439765184 -1.254684604
-0.1565488795 0.4439765184 -1.254684604
-0.2016512269 -0.8144344804 1.565100957
1.201651227 -0.8144344804 1.565100957
-0.1489493694 0.5551745999 2.169454136
1.148949369 0.5551745999 2.169454136
-0.1166224558 1.805941984 2.412854645
1.116622456 1.805941984 2.412854645
1.053150498 2.053310934 1.190948013
-0.05315049814 2.053310934 1.190948013
1.044483287 2.107154931 0.06671496268
-0.0444832868 2.107154931 0.06671496268
CELLS 6 54
8 0 1 2 3 4 5 6 7
8 0 3 2 1 8 11 10 9
8 1 0 8 9 5 4 12 13
8 5 4 12 13 6 7 14 15
8 14 15 6 7 16 17 18 19
8 7 19 18 6 3 21 20 2
CELL_TYPES 6
12
12
12
12
12
12
POINT_DATA 22
SCALARS fixed int
LOOKUP_TABLE default
1
1
1
1
1
1
1
1
0
0
0
0
0
0
0
0
0
0
0
0
0
0
