# vtk DataFile Version 3.0
Mesquite Mesh
ASCII
DATASET UNSTRUCTURED_GRID
POINTS 24 double
0 0 0
1 0 0
1 1 0
0 1 0
0 0 1
1 0 1
1 1 1
0 1 1
-0.2298735669 -1.13678243 -0.4737275368
1.229916606 -1.13675429 -0.4737167718
1.208393038 0.2980993275 -1.354683808
-0.2083787145 0.298079581 -1.354691792
-0.1379569303 -0.5499071461 1.341477979
1.137974739 -0.5498902506 1.341474755
-0.2876969649 -0.6680279275 2.492179462
1.287741406 -0.66801382 2.492167524
-0.3846071804 1.20758528 3.315323149
1.384648727 1.207591402 3.315305713
1.193713443 2.166160141 1.602394209
-0.1937172602 2.166159497 1.602408301
1.145963941 2.326360362 0.1800676963
-0.1459791571 2.326348449 0.1800772247
1.384648727 1.207591402 3.315305713
-0.3846071804 1.20758528 3.315323149
CELLS 7 63
8 0 1 2 3 4 5 6 7
8 0 3 2 1 8 11 10 9
8 1 0 8 9 5 4 12 13
8 5 4 12 13 6 7 14 15
8 14 15 6 7 16 17 18 19
8 7 19 18 6 3 21 20 2
8 12 13 15 14 22 23 17 16
CELL_TYPES 7
12
12
12
12
12
12
12
POINT_DATA 24
SCALARS fixed int
LOOKUP_TABLE default
1
1
1
1
1
1
1
1
1
1
0
0
1
1
1
1
0
0
0
0
0
0
0
0
