# vtk DataFile Version 3.0
Mesquite Mesh
ASCII
DATASET UNSTRUCTURED_GRID
POINTS 22 double
0 0 0
1 0 0
1 1 0
0 1 0
0 0 1
1 0 1
1 1 1
0 1 1
-0.2298735669 -1.13678243 -0.4737275368
1.229916606 -1.13675429 -0.4737167718
1.208399475 0.2980987799 -1.354693391
-0.2083783723 0.298087116 -1.354701993
-0.1379569303 -0.5499071461 1.341477979
1.137974739 -0.5498902506 1.341474755
-0.2876969649 -0.6680279275 2.492179462
1.287741406 -0.66801382 2.492167524
-0.5030695525 -1.279420778 3.854072843
1.503360559 -1.279331732 3.853864522
1.419952423 2.073743465 2.27279353
-0.4197248546 2.073737069 2.272866051
1.286449637 2.573866499 0.421257546
-0.2863490683 2.573960528 0.4213069662
CELLS 7 63
8 0 1 2 3 4 5 6 7
8 0 3 2 1 8 11 10 9
8 1 0 8 9 5 4 12 13
8 5 4 12 13 6 7 14 15
8 14 15 6 7 16 17 18 19
8 7 19 18 6 3 21 20 2
8 12 13 15 14 8 9 17 16
CELL_TYPES 7
12
12
12
12
12
12
12
POINT_DATA 22
SCALARS fixed int
LOOKUP_TABLE default
1
1
1
1
1
1
1
1
0
0
0
0
0
0
0
0
0
0
0
0
0
0
