# vtk DataFile Version 3.0
Mesquite Mesh
ASCII
DATASET UNSTRUCTURED_GRID
POINTS 22 double
0 0 0
1 0 0
1 1 0
0 1 0
0 0 1
1 0 1
1 1 1
0 1 1
-0.3618467093 -1.423713895 -0.4161968001
1.361520068 -1.424050069 -0.4162214681
1.283690922 0.2214674248 -1.475444426
-0.2838053838 0.221591069 -1.475383079
-0.1109051576 -0.4880810124 1.234154848
1.110962713 -0.488215953 1.234214475
-0.1954497772 -0.4668074077 2.046639659
1.19524789 -0.4669150679 2.046861875
-0.5471108358 -1.259857666 3.235592636
1.546126129 -1.26008563 3.236078637
1.375130948 1.939238355 2.20522373
-0.3754563785 1.939215722 2.205018937
1.262158302 2.512453542 0.4656461284
-0.262234495 2.512417933 0.4655419739
CELLS 7 63
8 0 1 2 3 4 5 6 7
8 0 3 2 1 8 11 10 9
8 1 0 8 9 5 4 12 13
8 5 4 12 13 6 7 14 15
8 14 15 6 7 16 17 18 19
8 7 19 18 6 3 21 20 2
8 12 13 15 14 8 9 17 16
CELL_TYPES 7
12
12
12
12
12
12
12
POINT_DATA 22
SCALARS fixed int
LOOKUP_TABLE default
0
0
0
0
0
0
0
0
0
0
0
0
0
0
0
0
0
0
0
0
0
0
