# vtk DataFile Version 3.0
Mesquite Mesh
ASCII
DATASET UNSTRUCTURED_GRID
POINTS 22 double
0.4709563904 0.01693664639 0.9538486913
0.5086939481 0.003516038654 0.9439089652
0.5117956319 0.0228568713 0.9061627922
0.4627812762 0.04022662225 0.919410999
0.4841611815 0.02645549375 0.9713667118
0.513415 0.01632734205 0.9637803314
0.530458766 0.04217047461 0.9673814753
0.4881780459 0.05650729187 0.9781201291
0.4597470025 -0.02379630658 0.9825638973
0.5053245272 -0.0403707612 0.9710384496
0.4916671619 -0.04035060446 0.9056441039
0.4385070464 -0.02076338581 0.9198919341
0.4808426578 0.009163206272 0.9867495904
0.5126879639 -0.002053400513 0.978558859
0.4887790493 0.02602371477 1.007259766
0.5262405727 0.0134119543 0.9979706215
0.4878027165 0.02031463727 1.048628737
0.5413389383 0.002539139353 1.035575925
0.5583628367 0.08150804211 0.9901492287
0.4999958216 0.1010162932 1.005132253
0.5461347978 0.09322040884 0.9128946648
0.4814291214 0.1150490067 0.9290427097
CELLS 7 63
8 0 1 2 3 4 5 6 7
8 0 3 2 1 8 11 10 9
8 1 0 8 9 5 4 12 13
8 5 4 12 13 6 7 14 15
8 14 15 6 7 16 17 18 19
8 7 19 18 6 3 21 20 2
8 12 13 15 14 8 9 17 16
CELL_TYPES 7
12
12
12
12
12
12
12
POINT_DATA 22
SCALARS fixed int
LOOKUP_TABLE default
0
0
0
0
0
0
0
0
0
0
0
0
0
0
0
0
0
0
0
0
0
0
