# vtk DataFile Version 3.0
Mesquite Mesh
ASCII
DATASET UNSTRUCTURED_GRID
POINTS 22 double
0 0 0
1 0 0
1 1 0
0 1 0
0 0 1
1 0 1
1 1 1
0 1 1
-0.3684707233 -1.397005354 -0.4063595959
1.37549071 -1.403222559 -0.3909383908
1.300816206 0.1970244622 -1.445830971
-0.284722559 0.2145051966 -1.45936753
-0.1065147031 -0.4510776176 1.219897382
1.093070965 -0.4597981295 1.232482382
-0.190919714 -0.4454372005 1.98638218
1.174231555 -0.4346587525 2.023940293
-0.6312700551 -1.24695031 3.098283586
1.4528305 -1.216182482 3.221496508
1.301237578 1.918252045 2.224273379
-0.4266804839 1.875161609 2.159257031
1.210432717 2.469524387 0.5119582739
-0.2822027752 2.464480908 0.4853083164
CELLS 7 63
8 0 1 2 3 4 5 6 7
8 0 3 2 1 8 11 10 9
8 1 0 8 9 5 4 12 13
8 5 4 12 13 6 7 14 15
8 14 15 6 7 16 17 18 19
8 7 19 18 6 3 21 20 2
8 12 13 15 14 8 9 17 16
CELL_TYPES 7
12
12
12
12
12
12
12
POINT_DATA 22
SCALARS fixed int
LOOKUP_TABLE default
1
1
1
1
1
1
1
1
0
0
0
0
0
0
0
0
0
0
0
0
0
0
